<VTKFile type="UnstructuredGrid" byte_order="LittleEndian" header_type="UInt64">
  <UnstructuredGrid>
    <Piece NumberOfPoints="1500" NumberOfCells="7707">
      <PointData Scalars="H2_density" Vectors="velocity">
        <DataArray type="Float32" Name="H2_density" format="ascii" RangeMin="1.0000000032e-30" RangeMax="6.7398510051e+13">
          5.7744929587e+11 9.4409713254e+11 4186749952 6.1144217682e+12 1.2782459945e+12 4.0299249664e+11
          5.6051729695e+12 666519104 8.071266304e+11 677014720 306775200 2.0993989673e+12
          25328220160 339330816 431020192 1.204950034e+13 1.4798089617e+13 404196096
          3.40754799e+12 8369796096 37418790912 2303330048 1.7699940598e+12 56084000768
          965727680 18008590336 22619400192 7.5820197478e+12 4703895040 1.0869199995e+12
          30617239552 16897030144 30263779328 20746459136 696084992 41431760896
          2.9456329605e+12 2.2058059366e+11 8.5302162227e+11 7.1923599933e+12 382434112 518187296
          18410881024 1082636032 1.6395120148e+12 3.2228979507e+13 399715008 415815200
          78226817024 6776857088 1.2247100293e+12 1521457024 2433171968 2.4830080451e+12
          39199010816 1.5365899813e+13 6.394209239e+11 1292622976 3.7898629939e+11 404960992
          332670592 61049319424 1.2838370279e+13 3.7235400376e+12 1.9126429942e+12 560510528
          43560439808 3933758976 1130359040 33910280192 49802870784 1.9679979766e+12
          3.1657759867e+12 770876608 2.6843260518e+11 30801510400 2.3101939122e+13 8.6804090061e+11
          9.9388791194e+11 9473773568 2.3059009372e+12 8.5769998828e+12 425165312 25180309504
          1097181952 292523584 2445380096 32425459712 15516999680 50984030208
          575943168 1.8692530504e+12 1.4561979597e+11 516530816 637093504 3695096064
          8495514112 430622688 48114061312 1.1088009626e+11 588393088 2034754944
          1631800960 3.4556061286e+11 3.093059915e+13 18296360960 1.0700859638e+13 1.5561939354e+11
          7493308928 72040292352 3.2930429665e+12 2.096441983e+12 3448485120 1.3622669476e+12
          1.0050439479e+13 1.0292129956e+12 1.4508210586e+11 1.6734320067e+12 1.0975910298e+12 18364389376
          89412452352 11732100096 1.6345829736e+13 5.9174427034e+11 6.2067428557e+11 3.1113838592e+11
          38115500032 3.6858639155e+12 46065709056 4.1684028621e+11 2.2969289933e+11 2.321550934e+12
          2798988032 1317421056 3.5915579392e+11 50862059520 73481412608 2.0156740403e+11
          8.5187998515e+11 829652800 25208440832 632885632 5.8947031532e+12 79143313408
          2.8489829581e+11 1.6663509402e+11 1.7490429542e+11 1.1617549681e+12 8.9416521482e+12 5.6275769754e+11
          500338912 372602816 1137378944 2527362048 975741824 2.716235989e+12
          1.6229929779e+11 1.6487769702e+12 889509312 5.9424689357e+12 37445140480 2212003072
          38300618752 1.2729430016e+11 6318238208 395721888 389959488 7.4578971853e+11
          6122758144 33640669184 2.8780441108e+12 276086016 18760159232 2.0900810588e+12
          2.3253470937e+13 2.9251459482e+11 3.0777939067e+12 39225708544 810059392 2.8760769823e+12
          4.7337569255e+13 6.4102428836e+12 1.3368039834e+12 13361850368 600821504 1.4004040499e+12
          542760704 8.928175063e+11 3.8636449956e+12 2.9872458957e+11 1.3109029765e+13 3.0350619443e+11
          9509049344 4741368832 60387151872 9.3752267899e+12 3.8950409339e+12 9477738496
          1.0145050132e+12 2.1620669809e+12 1.2917380219e+12 3.0554669056e+11 1.3644510265e+13 1.2835599942e+13
          404869888 427200096 1.4123479859e+12 1416238976 7.2341200568e+12 4.2614892003e+13
          411613792 827004224 1.6612280238e+13 3.8062810726e+12 1845864960 3.1353009603e+12
          611104896 8478940160 394078592 383503200 14259579904 658050624
          413964800 14221670400 6.474226729e+11 45572091904 1.2799230083e+13 1.3998170112e+11
          3.9153180344e+12 2.9851071283e+11 482350784 1.580854988e+13 4.8950188442e+11 415724000
          411845888 24056100864 3390951936 1.6485480137e+13 6.1597142221e+11 379053600
          1.5502309786e+11 377979008 27018289152 2.1730040218e+12 3.8522850509e+11 2.0928300319e+12
          6.4603442381e+11 22946789376 1.6535220388e+12 3.6109620347e+12 13591839744 2159791104
          583048896 6.1196448563e+11 1.6340220641e+12 3764824064 49257078784 2.4740880384e+11
          754442112 4109412096 3830490112 1267826048 11964520448 5.7508348559e+12
          12648429568 357807712 825882112 991478272 6255361024 84930502656
          4.1525961032e+12 1.9714809528e+12 5.9316430438e+11 1.3526150349e+11 10963789824 4.984143872e+11
          716618816 68886462464 360832512 2.2365090611e+11 964604928 538639616
          4.0945051238e+11 9525121024 1.2472410112e+11 7.9439247442e+12 19494950912 3.5106550579e+11
          2.1462229975e+12 9.7088731873e+12 382813504 2.7980598477e+11 3.6778390323e+11 1.1026889441e+12
          62770270208 57663348736 4124178944 6.7396337664e+11 2.426576044e+12 585598784
          7.9376927949e+11 6.0590931313e+12 399659008 3.2544781107e+11 55215861760 1.3240980275e+11
          20969369600 442163904 2.1365180334e+12 5.7583851274e+12 69127151616 17068149760
          1012316032 856710720 35208708096 1.1827299942e+11 19880089600 68425379840
          6.3977307505e+12 3.0760391148e+12 58232811520 1.3364390298e+11 2.0731899412e+13 1.0750340301e+11
          1.2216720425e+12 8.9496269619e+11 2.0665819464e+12 427500800 39769079808 8.5178436813e+11
          1917986944 36580311040 19947380736 5632083968 5.1400681062e+11 5.2143801238e+13
          1.0161079976e+13 4.6773651374e+12 728487680 5219646976 8707389440 3.9823671296e+12
          7220038144 628163008 3.4299510784e+11 2.007983063e+11 1643682048 421151296
          27534460928 7128756224 2103927040 363954304 91372298240 1.1869940089e+13
          3.0454230548e+12 528646688 965305984 5991648256 17325340672 3.1029231616e+11
          25262370816 12213799936 999334272 6.7398510051e+13 2.8036169728e+11 3.4752698778e+11
          1.6551019807e+12 21155649536 729273216 4689788928 4.0076358451e+11 6.0732860006e+11
          31419639808 2035794048 6986350080 461343392 1.2070079693e+11 9.8252908134e+11
          51679219712 646521024 4924454912 7.5743821824e+11 4.8472921211e+12 3.7536789955e+12
          3.7666091434e+13 744590208 392167712 3078560000 28120240128 1.9292959539e+12
          502837888 394262112 736333824 11558269952 1.3068529828e+12 2.8988609659e+12
          414565088 3.5174930186e+12 1.3209060147e+11 29922580480 675244608 402459104
          18159620096 5.8274448671e+12 1.4690359706e+12 2049476992 5975269888 408866208
          2448535040 6358644224 2.9250050458e+11 695439488 3.1328559432e+12 13138400256
          1.6072499528e+13 9.7637833114e+11 32550619136 300064512 4.084593066e+12 28898091008
          31283470336 7.4993688904e+12 366257216 4167209984 605248768 6.3526089523e+11
          5.8569638543e+12 583494592 789297600 1.2704230146e+13 2.8599010722e+13 17742919680
          7343207936 2500561920 16681509888 830864704 2554936064 415074912
          3.4982058394e+11 594139200 2.1339460403e+11 423404416 3166929920 823440128
          8.9567553126e+11 23645030400 659251968 647786816 1.2183979622e+11 405047488
          396972704 1445287040 5.391115092e+12 1065758976 2.2485219738e+11 4734039040
          1.3688949965e+13 420148096 24458160128 10699140096 923076928 13296929792
          35055349760 353592608 7.133324116e+12 3.1517219226e+12 52407959552 327452800
          374062688 4420940800 1.9514409615e+12 9.0393352602e+11 2.1820840346e+12 3.5967519949e+12
          3.6938409574e+11 1.3958199706e+11 1.2322180301e+11 2.8833090109e+12 4.8120528896e+11 396403296
          1398035968 1.1056620339e+11 1.114198016e+11 4387957248 3.9705918833e+12 2184844032
          54442790912 7.3414958121e+12 475523296 3.6163061023e+12 86833733632 7759943168
          3.3005599457e+12 1.7533609574e+11 4658889216 1.6993349796e+12 28416159744 10731870208
          1742503936 10274879488 6.243319808e+11 2706308096 5.2436860928e+11 453616288
          1999486976 20864729088 7.793115136e+11 1353011968 1.8231449354e+12 44397240320
          7.5374280049e+12 1715833984 2.0419859251e+11 8021556224 5.3713142022e+13 1.2177649959e+13
          2.8278429581e+13 2.7452099789e+11 8548610048 2.5160769864e+12 1.9567060582e+11 8.5722018611e+11
          2.3702829793e+13 445199712 5731325952 8.3216642867e+11 6.2630749798e+11 6.8362709238e+12
          915086976 4.0631460168e+12 1.3487530312e+12 4.2369750139e+12 29410390016 2.1404270592e+11
          289493696 2.2340109926e+11 2.4206229504e+11 372006688 16589249536 415054592
          34825969664 14206040064 5.6570502185e+12 8.7245278413e+11 58837078016 6206624768
          405135104 4.2765241549e+11 19241519104 1.034837033e+11 1.783007019e+12 88879939584
          2.9498238566e+11 550430528 1.552425943e+12 11026230272 1.4314440229e+13 1.0392710414e+13
          4105040896 2.0752069427e+11 1.5710650368e+12 7.0846251008e+11 36274171904 81103863808
          3.5392690586e+12 7.9406307738e+11 1.0115049718e+12 14594570240 3.7659481211e+12 7.0650291814e+11
          5739765248 20117129216 9.3401330483e+11 1.0707150045e+13 2.2447039447e+12 712256000
          9.0395503493e+12 2.0060471034e+13 1987261056 1.5401620603e+12 2004439040 2110813952
          3.9320891163e+13 12083030016 2.9698690253e+11 7.6850281841e+12 446073600 467363296
          1356529024 3.474603049e+11 3622804992 36751171584 1167085952 3.9372290785e+12
          2.6236859187e+11 839498688 440669504 587305984 5.8490240369e+12 9.4716506931e+12
          420446496 2790939904 76634972160 6127536128 1.0186259661e+11 5883863040
          1.0769599693e+11 9.5173469798e+11 2.950721962e+12 1.2250259653e+13 45987729408 3467218944
          14649929728 3.082422059e+12 9.2844090982e+11 14011079680 43883388928 2221775872
          45292109824 2786098944 28705720320 42350088192 1185202048 3.0020170547e+11
          23813550080 3.2590140539e+12 1347927040 7953512960 8.175395799e+12 2388137984
          3.5915107926e+13 1168472960 2.7796559626e+12 382621600 6.4809828352e+11 324074400
          1.3810209915e+12 62360588288 2.9041839047e+13 27294050304 13538509824 34393780224
          3.1963758592e+11 3241595904 463105792 1.5953920262e+13 370682208 408242112
          2323047936 9210013696 1.029345955e+13 1.233621975e+11 379971296 6.3419271086e+12
          8.5465518572e+12 35866259456 5.1923071795e+12 1.2753150411e+13 2.6875920384e+11 1.4381259686e+13
          90777231360 554195776 723385024 2.4918540943e+12 8940177408 12422710272
          59104989184 5.654700884e+12 3.7970891506e+13 40364818432 388027488 1.5320180326e+11
          3992547072 1.5937459978e+12 40415580160 434469504 6.7471048704e+11 8924354560
          1.5084760269e+11 739185408 2468007936 33516029952 66385850368 13493730304
          8531385856 26646540288 10412680192 1051921984 2.9175780475e+12 621331584
          78231339008 2244520960 5.5138530099e+13 9450089472 39173459968 2058331008
          2.7610610401e+12 353003392 3386254080 406471904 3169104896 423941696
          6.5391899443e+11 5.3044281344e+11 418447808 7313965056 304711808 8.3233189396e+12
          1.2645650399e+13 596087680 8.4858857062e+11 14892470272 1296896000 5050749952
          1.404715991e+11 6.4506232832e+11 3.4510720205e+11 2.7659190272e+11 700963072 573572096
          5.2046080246e+12 9.469172777e+11 1.3040210412e+12 1216830976 1905022976 74359570432
          381525600 1.6876420465e+12 2.5033530409e+12 1004678016 20634619904 1239534976
          1.0343759741e+13 3.2012700221e+12 686459776 9.1197498982e+11 311576512 9882388480
          1004796992 733603008 1109321984 400525792 19517560832 11381669888
          6.3381380792e+12 1.1415770366e+13 84497088512 47700099072 400099008 776127872
          7.8467862364e+12 3494157056 3.5211310531e+12 4.1070850867e+11 1.3353109946e+13 9.7594869023e+12
          8.2555258798e+12 2.332357034e+13 5.8479911895e+12 4.1250780611e+12 3416092928 607661504
          6.9200238346e+12 17214509056 7.1883282186e+12 1.167532032e+11 7015000064 69319942144
          6278733824 1464470016 470842816 5.2825208914e+12 1180203008 64074919936
          17754220544 391841696 8065145856 5269915136 448663104 34815791104
          3.6811630182e+11 1105277952 1.5125449933e+11 9.1462329958e+11 4242587904 8404340224
          2.8911979725e+11 1.7126230589e+12 1.8831309537e+12 1.6718199521e+12 466088896 1.4612870201e+13
          61883289600 2.6074510131e+11 4.4212020838e+11 2.127862956e+12 375819488 5380042752
          2.6309159813e+12 12451449856 913038400 547542592 65812590592 2.439425065e+11
          11715770368 402739904 50985361408 5.0046920294e+11 9444298752 4.1862608978e+12
          1.1359599821e+11 6.1514558996e+12 26070571008 1.1490950349e+11 619632512 2.0738429747e+11
          318555200 3.9734801203e+11 6.1263660974e+12 8.7151382364e+12 2.9986409677e+11 4330568192
          2.2408499036e+13 1689707008 48926851072 1.7050250445e+11 37729619968 1.6139700142e+12
          3020835072 869932928 4.3625611264e+12 48007360512 60807979008 1.401856e+11
          1.1446389965e+11 4.1860588372e+13 903425216 3.952767035e+13 91769143296 61295411200
          1.5065440584e+12 689395328 1.2123069481e+12 4.3534260634e+11 1.5174470205e+12 1.5106459238e+11
          1797852032 4057253120 1.6551259341e+11 3.601408983e+11 4648092160 1199885056
          1.7878309274e+11 2.1090759868e+13 4.1493059994e+11 3.3602748416e+11 9.0175189811e+11 14511790080
          14304199680 2474406912 1.3600690274e+13 8.707152937e+11 4.9653381857e+12 25469929472
          335918784 6.0609311801e+13 1633539968 1.0438849855e+13 6.3484749414e+11 1.5794700288e+11
          1.2368420045e+11 436106112 34746200064 719550592 474364000 1369245952
          24485459968 56741699584 27469899776 275068704 4.8613970412e+12 586903680
          343713888 4.6380050022e+11 3.0544279634e+12 5135209984 354308896 7.0116881203e+11
          453578816 576168576 1.0652410184e+13 2.376096075e+13 4.5450110566e+11 394230112
          1932471040 1.9231470387e+11 17486000128 9.9699687424e+11 2.5868359434e+12 4.3742939054e+12
          1984897024 1.6254420124e+13 2.2134349824e+11 2.6411010621e+12 6494492160 423949696
          3.4680150426e+11 30645020672 4.858769834e+12 10405650432 4.7922020352e+11 1863031040
          1.2257600307e+11 5217908224 648763392 3.984941056e+11 1.4434889892e+12 14879269888
          379167712 12113000448 1.046271017e+11 624310976 1.2953409946e+11 7968250880
          76015329280 6.5603279258e+11 18808340480 772813120 27800580096 1.1770859356e+12
          507905312 3.7484229427e+11 1660654976 10529569792 9.9881362391e+12 12764290048
          3.219536937e+11 3294821120 73051398144 6.1023289344e+11 26553149440 3.8553580995e+12
          10653039616 876172480 3.9099060716e+12 3.569480106e+12 3.2066571469e+11 9.1970317844e+12
          2.6787360801e+13 984377472 275994816 6.4536941953e+13 1.4744030413e+11 3.8558310072e+12
          86327386112 6.3186817516e+12 3.3677410304e+11 5.7259951391e+12 1813638016 1.1299129917e+12
          3.3984308838e+11 31758139392 3.6826551157e+13 4.593977131e+12 1213920000 6316347904
          1.0527970427e+13 2161112064 69378719744 2.5108389888e+11 4.5579421876e+13 26202300416
          1.0397049815e+12 516962816 72858296320 42787471360 3.3364589412e+13 738857408
          601721024 9039060992 7.0514030674e+12 3.7842339758e+12 370564608 7034959872
          69906743296 711022912 665019008 6629703168 1.4781520282e+11 6915484160
          1.5598210253e+12 5.7991948665e+13 41660768256 562357696 66917289984 2.8906751001e+13
          10416709632 1.7323260641e+12 1.3227160371e+11 18931660800 1.0000000032e-30 1.0000000032e-30
          1.0000000032e-30 1.0000000032e-30 1.0000000032e-30 1.0000000032e-30 1.0000000032e-30 1.0000000032e-30
          1.0000000032e-30 1.0000000032e-30 1.0000000032e-30 1.0000000032e-30 1.0000000032e-30 1.0000000032e-30
          1.0000000032e-30 1.0000000032e-30 1.0000000032e-30 1.0000000032e-30 1.0000000032e-30 1.0000000032e-30
          1.0000000032e-30 1.0000000032e-30 1.0000000032e-30 1.0000000032e-30 1.0000000032e-30 1.0000000032e-30
          1.0000000032e-30 1.0000000032e-30 1.0000000032e-30 1.0000000032e-30 1.0000000032e-30 1.0000000032e-30
          1.0000000032e-30 1.0000000032e-30 1.0000000032e-30 1.0000000032e-30 1.0000000032e-30 1.0000000032e-30
          1.0000000032e-30 1.0000000032e-30 1.0000000032e-30 1.0000000032e-30 1.0000000032e-30 1.0000000032e-30
          1.0000000032e-30 1.0000000032e-30 1.0000000032e-30 1.0000000032e-30 1.0000000032e-30 1.0000000032e-30
          1.0000000032e-30 1.0000000032e-30 1.0000000032e-30 1.0000000032e-30 1.0000000032e-30 1.0000000032e-30
          1.0000000032e-30 1.0000000032e-30 1.0000000032e-30 1.0000000032e-30 1.0000000032e-30 1.0000000032e-30
          1.0000000032e-30 1.0000000032e-30 1.0000000032e-30 1.0000000032e-30 1.0000000032e-30 1.0000000032e-30
          1.0000000032e-30 1.0000000032e-30 1.0000000032e-30 1.0000000032e-30 1.0000000032e-30 1.0000000032e-30
          1.0000000032e-30 1.0000000032e-30 1.0000000032e-30 1.0000000032e-30 1.0000000032e-30 1.0000000032e-30
          1.0000000032e-30 1.0000000032e-30 1.0000000032e-30 1.0000000032e-30 1.0000000032e-30 1.0000000032e-30
          1.0000000032e-30 1.0000000032e-30 1.0000000032e-30 1.0000000032e-30 1.0000000032e-30 1.0000000032e-30
          1.0000000032e-30 1.0000000032e-30 1.0000000032e-30 1.0000000032e-30 1.0000000032e-30 1.0000000032e-30
          1.0000000032e-30 1.0000000032e-30 1.0000000032e-30 1.0000000032e-30 1.0000000032e-30 1.0000000032e-30
          1.0000000032e-30 1.0000000032e-30 1.0000000032e-30 1.0000000032e-30 1.0000000032e-30 1.0000000032e-30
          1.0000000032e-30 1.0000000032e-30 1.0000000032e-30 1.0000000032e-30 1.0000000032e-30 1.0000000032e-30
          1.0000000032e-30 1.0000000032e-30 1.0000000032e-30 1.0000000032e-30 1.0000000032e-30 1.0000000032e-30
          1.0000000032e-30 1.0000000032e-30 1.0000000032e-30 1.0000000032e-30 1.0000000032e-30 1.0000000032e-30
          1.0000000032e-30 1.0000000032e-30 1.0000000032e-30 1.0000000032e-30 1.0000000032e-30 1.0000000032e-30
          1.0000000032e-30 1.0000000032e-30 1.0000000032e-30 1.0000000032e-30 1.0000000032e-30 1.0000000032e-30
          1.0000000032e-30 1.0000000032e-30 1.0000000032e-30 1.0000000032e-30 1.0000000032e-30 1.0000000032e-30
          1.0000000032e-30 1.0000000032e-30 1.0000000032e-30 1.0000000032e-30 1.0000000032e-30 1.0000000032e-30
          1.0000000032e-30 1.0000000032e-30 1.0000000032e-30 1.0000000032e-30 1.0000000032e-30 1.0000000032e-30
          1.0000000032e-30 1.0000000032e-30 1.0000000032e-30 1.0000000032e-30 1.0000000032e-30 1.0000000032e-30
          1.0000000032e-30 1.0000000032e-30 1.0000000032e-30 1.0000000032e-30 1.0000000032e-30 1.0000000032e-30
          1.0000000032e-30 1.0000000032e-30 1.0000000032e-30 1.0000000032e-30 1.0000000032e-30 1.0000000032e-30
          1.0000000032e-30 1.0000000032e-30 1.0000000032e-30 1.0000000032e-30 1.0000000032e-30 1.0000000032e-30
          1.0000000032e-30 1.0000000032e-30 1.0000000032e-30 1.0000000032e-30 1.0000000032e-30 1.0000000032e-30
          1.0000000032e-30 1.0000000032e-30 1.0000000032e-30 1.0000000032e-30 1.0000000032e-30 1.0000000032e-30
          1.0000000032e-30 1.0000000032e-30 1.0000000032e-30 1.0000000032e-30 1.0000000032e-30 1.0000000032e-30
          1.0000000032e-30 1.0000000032e-30 1.0000000032e-30 1.0000000032e-30 1.0000000032e-30 1.0000000032e-30
          1.0000000032e-30 1.0000000032e-30 1.0000000032e-30 1.0000000032e-30 1.0000000032e-30 1.0000000032e-30
          1.0000000032e-30 1.0000000032e-30 1.0000000032e-30 1.0000000032e-30 1.0000000032e-30 1.0000000032e-30
          1.0000000032e-30 1.0000000032e-30 1.0000000032e-30 1.0000000032e-30 1.0000000032e-30 1.0000000032e-30
          1.0000000032e-30 1.0000000032e-30 1.0000000032e-30 1.0000000032e-30 1.0000000032e-30 1.0000000032e-30
          1.0000000032e-30 1.0000000032e-30 1.0000000032e-30 1.0000000032e-30 1.0000000032e-30 1.0000000032e-30
          1.0000000032e-30 1.0000000032e-30 1.0000000032e-30 1.0000000032e-30 1.0000000032e-30 1.0000000032e-30
          1.0000000032e-30 1.0000000032e-30 1.0000000032e-30 1.0000000032e-30 1.0000000032e-30 1.0000000032e-30
          1.0000000032e-30 1.0000000032e-30 1.0000000032e-30 1.0000000032e-30 1.0000000032e-30 1.0000000032e-30
          1.0000000032e-30 1.0000000032e-30 1.0000000032e-30 1.0000000032e-30 1.0000000032e-30 1.0000000032e-30
          1.0000000032e-30 1.0000000032e-30 1.0000000032e-30 1.0000000032e-30 1.0000000032e-30 1.0000000032e-30
          1.0000000032e-30 1.0000000032e-30 1.0000000032e-30 1.0000000032e-30 1.0000000032e-30 1.0000000032e-30
          1.0000000032e-30 1.0000000032e-30 1.0000000032e-30 1.0000000032e-30 1.0000000032e-30 1.0000000032e-30
          1.0000000032e-30 1.0000000032e-30 1.0000000032e-30 1.0000000032e-30 1.0000000032e-30 1.0000000032e-30
          1.0000000032e-30 1.0000000032e-30 1.0000000032e-30 1.0000000032e-30 1.0000000032e-30 1.0000000032e-30
          1.0000000032e-30 1.0000000032e-30 1.0000000032e-30 1.0000000032e-30 1.0000000032e-30 1.0000000032e-30
          1.0000000032e-30 1.0000000032e-30 1.0000000032e-30 1.0000000032e-30 1.0000000032e-30 1.0000000032e-30
          1.0000000032e-30 1.0000000032e-30 1.0000000032e-30 1.0000000032e-30 1.0000000032e-30 1.0000000032e-30
          1.0000000032e-30 1.0000000032e-30 1.0000000032e-30 1.0000000032e-30 1.0000000032e-30 1.0000000032e-30
          1.0000000032e-30 1.0000000032e-30 1.0000000032e-30 1.0000000032e-30 1.0000000032e-30 1.0000000032e-30
          1.0000000032e-30 1.0000000032e-30 1.0000000032e-30 1.0000000032e-30 1.0000000032e-30 1.0000000032e-30
          1.0000000032e-30 1.0000000032e-30 1.0000000032e-30 1.0000000032e-30 1.0000000032e-30 1.0000000032e-30
          1.0000000032e-30 1.0000000032e-30 1.0000000032e-30 1.0000000032e-30 1.0000000032e-30 1.0000000032e-30
          1.0000000032e-30 1.0000000032e-30 1.0000000032e-30 1.0000000032e-30 1.0000000032e-30 1.0000000032e-30
          1.0000000032e-30 1.0000000032e-30 1.0000000032e-30 1.0000000032e-30 1.0000000032e-30 1.0000000032e-30
          1.0000000032e-30 1.0000000032e-30 1.0000000032e-30 1.0000000032e-30 1.0000000032e-30 1.0000000032e-30
          1.0000000032e-30 1.0000000032e-30 1.0000000032e-30 1.0000000032e-30 1.0000000032e-30 1.0000000032e-30
          1.0000000032e-30 1.0000000032e-30 1.0000000032e-30 1.0000000032e-30 1.0000000032e-30 1.0000000032e-30
          1.0000000032e-30 1.0000000032e-30 1.0000000032e-30 1.0000000032e-30 1.0000000032e-30 1.0000000032e-30
          1.0000000032e-30 1.0000000032e-30 1.0000000032e-30 1.0000000032e-30 1.0000000032e-30 1.0000000032e-30
          1.0000000032e-30 1.0000000032e-30 1.0000000032e-30 1.0000000032e-30 1.0000000032e-30 1.0000000032e-30
          1.0000000032e-30 1.0000000032e-30 1.0000000032e-30 1.0000000032e-30 1.0000000032e-30 1.0000000032e-30
          1.0000000032e-30 1.0000000032e-30 1.0000000032e-30 1.0000000032e-30 1.0000000032e-30 1.0000000032e-30
          1.0000000032e-30 1.0000000032e-30 1.0000000032e-30 1.0000000032e-30 1.0000000032e-30 1.0000000032e-30
          1.0000000032e-30 1.0000000032e-30 1.0000000032e-30 1.0000000032e-30 1.0000000032e-30 1.0000000032e-30
          1.0000000032e-30 1.0000000032e-30 1.0000000032e-30 1.0000000032e-30 1.0000000032e-30 1.0000000032e-30
          1.0000000032e-30 1.0000000032e-30 1.0000000032e-30 1.0000000032e-30 1.0000000032e-30 1.0000000032e-30
          1.0000000032e-30 1.0000000032e-30 1.0000000032e-30 1.0000000032e-30 1.0000000032e-30 1.0000000032e-30
          1.0000000032e-30 1.0000000032e-30 1.0000000032e-30 1.0000000032e-30 1.0000000032e-30 1.0000000032e-30
          1.0000000032e-30 1.0000000032e-30 1.0000000032e-30 1.0000000032e-30 1.0000000032e-30 1.0000000032e-30
          1.0000000032e-30 1.0000000032e-30 1.0000000032e-30 1.0000000032e-30 1.0000000032e-30 1.0000000032e-30
          1.0000000032e-30 1.0000000032e-30 1.0000000032e-30 1.0000000032e-30 1.0000000032e-30 1.0000000032e-30
          1.0000000032e-30 1.0000000032e-30 1.0000000032e-30 1.0000000032e-30 1.0000000032e-30 1.0000000032e-30
          1.0000000032e-30 1.0000000032e-30 1.0000000032e-30 1.0000000032e-30 1.0000000032e-30 1.0000000032e-30
          1.0000000032e-30 1.0000000032e-30 1.0000000032e-30 1.0000000032e-30 1.0000000032e-30 1.0000000032e-30
          1.0000000032e-30 1.0000000032e-30 1.0000000032e-30 1.0000000032e-30 1.0000000032e-30 1.0000000032e-30
          1.0000000032e-30 1.0000000032e-30 1.0000000032e-30 1.0000000032e-30 1.0000000032e-30 1.0000000032e-30
          1.0000000032e-30 1.0000000032e-30 1.0000000032e-30 1.0000000032e-30 1.0000000032e-30 1.0000000032e-30
          1.0000000032e-30 1.0000000032e-30 1.0000000032e-30 1.0000000032e-30 1.0000000032e-30 1.0000000032e-30
          1.0000000032e-30 1.0000000032e-30 1.0000000032e-30 1.0000000032e-30 1.0000000032e-30 1.0000000032e-30
        </DataArray>
        <DataArray type="Float32" Name="Mol_density" format="ascii" RangeMin="0" RangeMax="6739850752">
          57744928 94409712 418675 611442176 127824600 40299248
          560517312 66651.90625 80712656 67701.46875 30677.519531 209939904
          2532822 33933.078125 43102.019531 1204950016 1479809024 40419.609375
          340754816 836979.625 3741879 230333 176999392 5608400
          96572.773438 1800859 2261940 758201984 470389.5 108692000
          3061724 1689703 3026378 2074646 69608.5 4143176
          294563296 22058060 85302160 719235968 38243.410156 51818.730469
          1841088 108263.60156 163951200 3222897920 39971.5 41581.519531
          7822682 677685.6875 122471000 152145.70312 243317.20312 248300800
          3919901 1536589952 63942088 129262.29688 37898632 40496.101562
          33267.058594 6104932 1283837056 372353984 191264304 56051.050781
          4356044 393375.90625 113035.89844 3391028 4980287 196799808
          316577600 77087.65625 26843260 3080151 2310193920 86804088
          99388792 947377.375 230590096 857699968 42516.53125 2518031
          109718.20312 29252.359375 244538 3242546 1551700 5098403
          57594.320312 186925296 14561980 51653.078125 63709.351562 369509.59375
          849551.375 43062.269531 4811406 11088010 58839.308594 203475.5
          163180.09375 34556060 3093060096 1829636 1070086016 15561940
          749330.875 7204029 329304288 209644192 344848.5 136226704
          1005043968 102921296 14508210 167343200 109759104 1836439
          8941245 1173210 1634583040 59174432 62067432 31113840
          3811550 368586400 4606571 41684032 22969290 232155104
          279898.8125 131742.09375 35915580 5086206 7348141 20156740
          85188000 82965.28125 2520844 63288.558594 589470272 7914331
          28489830 16663510 17490430 116175504 894165184 56275768
          50033.890625 37260.28125 113737.89844 252736.20312 97574.179688 271623616
          16229930 164877696 88950.929688 594246912 3744514 221200.29688
          3830062 12729430 631823.8125 39572.191406 38995.949219 74578968
          612275.8125 3364067 287804416 27608.599609 1876016 209008096
          2325347072 29251460 307779392 3922571 81005.9375 287607712
          4733756928 641024320 133680400 1336185 60082.148438 140040400
          54276.070312 89281752 386364512 29872460 1310903040 30350620
          950904.875 474136.90625 6038715 937522688 389504096 947773.875
          101450496 216206704 129173800 30554670 1364450944 1283559936
          40486.988281 42720.011719 141234800 141623.90625 723411968 4261488896
          41161.378906 82700.421875 1661228032 380628096 184586.5 313530112
          61110.488281 847894 39407.859375 38350.320312 1425958 65805.0625
          41396.480469 1422167 64742272 4557209 1279922944 13998170
          391531808 29851070 48235.078125 1580855040 48950192 41572.398438
          41184.589844 2405610 339095.1875 1648547968 61597140 37905.359375
          15502310 37797.898438 2701829 217300400 38522848 209283008
          64603440 2294679 165352192 361096192 1359184 215979.09375
          58304.890625 61196448 163402208 376482.40625 4925708 24740880
          75444.210938 410941.1875 383049 126782.60156 1196452 575083520
          1264843 35780.769531 82588.210938 99147.828125 625536.125 8493050
          415259584 197148096 59316432 13526150 1096379 49841440
          71661.882812 6888646 36083.25 22365090 96460.492188 53863.960938
          40945048 952512.125 12472410 794392512 1949495 35106552
          214622304 970887296 38281.351562 27980600 36778392 110268896
          6277027 5766335 412417.90625 67396336 242657600 58559.878906
          79376928 605909312 39965.898438 32544780 5521586 13240980
          2096937 44216.390625 213651808 575838528 6912715 1706815
          101231.60156 85671.070312 3520871 11827300 1988009 6842538
          639773120 307603904 5823281 13364390 2073190016 10750340
          122167200 89496272 206658208 42750.078125 3976908 85178440
          191798.70312 3658031 1994738 563208.375 51400680 5214380032
          1016108032 467736512 72848.773438 521964.6875 870738.875 398236704
          722003.8125 62816.300781 34299512 20079830 164368.20312 42115.128906
          2753446 712875.625 210392.70312 36395.429688 9137230 1186994048
          304542304 52864.671875 96530.601562 599164.8125 1732534 31029230
          2526237 1221380 99933.429688 6739850752 28036170 34752700
          165510208 2115565 72927.320312 468978.90625 40076360 60732860
          3141964 203579.40625 698635 46134.339844 12070080 98252912
          5167922 64652.101562 492445.5 75743824 484729216 375367904
          3766608896 74459.023438 39216.769531 307856 2812024 192929600
          50283.789062 39426.210938 73633.382812 1155827 130685296 289886112
          41456.511719 351749312 13209060 2992258 67524.460938 40245.910156
          1815962 582744512 146903600 204947.70312 597527 40886.621094