# vtk DataFile Version 3.0
Lime grid
ASCII
DATASET UNSTRUCTURED_GRID
POINTS 1500 float
6.147920e+12 -3.393591e+12 -1.457167e+13
3.482082e+12 1.216176e+13 -3.236973e+10
1.395394e+14 1.269231e+14 2.250448e+13
3.460906e+12 3.244910e+12 -1.484177e+12
5.803542e+12 -1.712791e+12 9.032420e+12
1.188673e+13 -1.524001e+13 1.167275e+12
-3.516985e+10 3.724037e+12 3.617374e+12
1.617340e+14 -2.840532e+14 -3.461762e+14
1.670295e+12 -6.243229e+12 -1.205921e+13
-8.597525e+13 -1.373146e+14 4.437576e+14
4.150359e+14 -4.385421e+14 3.576725e+14
9.815782e+11 8.417758e+12 3.808995e+11
2.632375e+13 5.094454e+12 -7.243139e+13
2.177341e+14 3.288755e+14 5.382243e+14
-4.774598e+13 2.241304e+14 5.459134e+14
2.653348e+12 1.565259e+12 1.746035e+12
-2.754617e+12 -1.615143e+12 1.155949e+11
-2.783865e+14 1.392503e+14 -5.262213e+14
2.284290e+12 5.145705e+12 3.555690e+12
-1.266850e+14 -3.975922e+13 -2.053486e+13
-5.216019e+13 -3.076072e+13 1.925743e+13
-1.775790e+14 -8.089202e+13 1.658843e+14
1.538175e+12 8.758313e+12 -2.507319e+12
-2.523004e+13 1.137722e+13 -4.390856e+13
9.839696e+13 3.817640e+14 3.200145e+13
-8.337379e+13 3.627192e+13 1.108719e+13
1.392500e+13 1.115944e+13 7.975672e+13
-2.226651e+12 7.024981e+11 -3.804688e+12
-9.514411e+13 -9.301257e+13 1.200667e+14
-1.859773e+12 1.019316e+13 -5.625507e+12
6.506872e+13 3.241397e+12 -2.627334e+13
-1.888543e+13 -7.599282e+13 5.301053e+13
3.877132e+13 -2.190440e+13 -5.485754e+13
8.480832e+12 -5.272760e+13 6.656174e+13
2.425161e+13 1.385994e+14 -4.441350e+14
-1.900432e+13 4.323861e+13 3.762881e+13
-5.024437e+12 -3.935473e+12 3.249500e+12
-6.180028e+12 3.624616e+11 -2.542895e+13
-4.036675e+12 -1.170633e+13 -4.877299e+12
2.875758e+12 -2.825214e+12 2.180574e+12
-2.249639e+14 5.171053e+14 -2.776014e+14
2.688564e+14 -1.122876e+14 -4.546184e+14
-2.105547e+13 1.590237e+13 -8.666157e+13
3.057500e+14 1.650357e+14 1.372432e+14
-8.137922e+12 -3.957553e+12 -3.204094e+12
1.248112e+12 -7.500881e+11 -1.602354e+12
-5.384491e+14 2.669958e+14 1.295183e+14
-3.958774e+14 4.466655e+14 -8.440684e+13
-2.254066e+13 -3.430511e+13 -1.569988e+13
-4.615834e+13 1.415201e+14 -1.166837e+13
-5.634529e+12 -4.126614e+12 8.636518e+12
5.755557e+12 -3.142619e+14 -2.260618e+13
-2.225529e+14 1.120808e+14 1.775695e+12
-3.337598e+12 -5.072339e+12 4.896993e+12
-6.071342e+13 -4.061469e+12 -1.231932e+13
-4.141841e+11 -2.835221e+12 -1.273831e+12
8.625246e+12 -7.681092e+12 -1.014370e+13
1.022363e+14 1.803809e+14 2.718368e+14
-4.242931e+12 -1.185050e+13 -1.549924e+13
6.064898e+14 1.471508e+13 7.103645e+13
4.751212e+14 -3.800635e+14 -2.897901e+14
3.180936e+13 3.358921e+13 1.829698e+13
2.455545e+12 -1.801423e+12 -1.579126e+12
-4.887357e+12 -1.810407e+12 3.662321e+12
2.118056e+12 6.642626e+12 -5.512140e+12
-7.107649e+13 5.822615e+13 5.109912e+14
-2.353000e+13 -3.205667e+13 -4.344163e+13
-5.087298e+13 -1.722197e+14 -7.848773e+13
2.379806e+14 -9.717974e+13 -2.599711e+14
-3.291578e+13 4.065795e+13 -4.146085e+13
5.181366e+13 -1.205375e+13 -1.427483e+13
-6.138615e+11 1.459969e+12 8.617659e+12
5.220706e+11 -6.431008e+12 -2.468801e+12
3.815300e+14 1.451384e+14 -1.713612e+14
1.552129e+13 -7.848472e+12 1.613516e+13
5.048679e+12 6.311578e+13 -2.993527e+13
1.769025e+12 1.750269e+12 -5.892048e+11
-2.445134e+12 1.227123e+13 4.182628e+12
9.176942e+12 -8.081197e+12 1.579579e+12
-5.406288e+13 1.038941e+14 -4.723607e+13
-6.181826e+12 8.458283e+11 -5.156733e+12
3.515148e+12 -1.058160e+11 2.290854e+12
-2.320465e+14 2.345045e+13 5.486048e+14
-3.494422e+13 -6.806921e+13 -1.207161e+13
-1.763570e+14 -1.205531e+14 3.034314e+14
-4.979926e+14 7.822050e+13 -5.122335e+14
-4.060363e+13 -4.714942e+13 2.406519e+14
4.595113e+13 -3.552359e+13 -3.586243e+13
8.544112e+12 -2.114338e+12 -9.828254e+13
5.939407e+12 -5.317748e+13 -1.001574e+13
-3.211971e+14 3.024050e+13 -3.978055e+14
4.190235e+12 2.804289e+12 -7.443510e+12
-3.035655e+13 -1.909711e+12 1.060110e+13
-6.287881e+12 3.742946e+14 -3.903449e+14
3.252399e+14 -3.161664e+14 -1.772278e+14
2.019729e+13 9.337811e+13 -1.782172e+14
5.496913e+13 8.720240e+13 8.460833e+13
-4.649112e+14 -3.357092e+14 -1.483780e+14
-4.967269e+12 -4.810082e+13 2.831678e+13
-1.829807e+13 -5.368824e+12 3.160666e+13
-1.079470e+14 4.291439e+14 2.469080e+14
2.668811e+14 -5.416778e+13 9.692869e+12
-4.364835e+12 -2.587982e+14 -1.599816e+14
1.091056e+13 1.671978e+13 -6.215635e+12
1.362036e+12 7.716751e+11 -1.560165e+12
6.032833e+13 3.762645e+13 -5.659113e+13
-1.898877e+12 -1.113516e+12 -3.045255e+12
-1.917514e+13 1.717940e+13 -1.755173e+13
6.189779e+13 1.270655e+14 1.364058e+13
9.338096e+12 4.402586e+13 8.473099e+12
-6.118315e+12 2.866411e+12 4.804687e+11
-4.328940e+11 -3.390019e+12 7.771042e+12
8.544955e+13 -1.847905e+14 -4.861767e+13
-7.361866e+12 -5.248730e+12 5.400270e+12
2.037372e+12 -8.106066e+11 -3.197655e+12
3.813174e+12 -1.140549e+13 1.474462e+12
-2.615944e+13 1.041365e+13 -1.576818e+13
7.716199e+12 3.230295e+12 -4.506854e+12
-4.349680e+12 2.914158e+12 1.049962e+13
-2.606748e+13 -5.923057e+13 -6.355666e+13
1.750101e+13 -1.571322e+13 3.371343e+13
-5.613708e+13 -9.538317e+13 2.507671e+13
2.598522e+12 -8.503313e+10 -1.575964e+12
-4.855596e+12 -7.252964e+12 1.338447e+13
1.308257e+12 -1.395754e+13 6.848437e+12
-1.155762e+13 -1.047789e+13 1.556382e+13
-9.655948e+12 6.221306e+13 -4.968428e+11
-5.553043e+12 -1.147234e+12 -2.973003e+12
-1.195487e+13 8.871894e+12 -5.530104e+13
4.746277e+12 3.530467e+12 -1.809609e+13
-2.027643e+13 -5.812579e+12 1.458981e+13
-6.817343e+11 -5.842947e+11 -8.017134e+12
6.150434e+13 6.085991e+13 2.156218e+14
-1.526807e+14 -2.696675e+14 1.365749e+14
1.934710e+13 -3.677730e+12 -5.730534e+12
-6.927296e+10 -3.219230e+13 -4.397946e+13
-3.312984e+13 -2.169159e+13 -2.209133e+13
1.161410e+13 -2.471497e+13 -1.961631e+12
9.098627e+12 7.164393e+12 6.576068e+12
5.743540e+13 -3.286874e+14 2.660368e+14
-2.719319e+13 -1.132551e+13 -7.159476e+13
4.869563e+14 4.000568e+13 -1.299427e+12
-1.672014e+12 -3.758329e+12 2.951349e+12
-1.705976e+12 -3.543851e+13 -2.549988e+13
1.985320e+12 2.110621e+13 -8.994928e+12
-1.242331e+12 2.594264e+12 2.997375e+13
-1.435742e+13 2.441872e+13 -7.837241e+12
9.867096e+12 5.507537e+12 1.535871e+12
-3.287215e+12 -7.311457e+10 2.466975e+12
7.386711e+12 4.911824e+12 1.377637e+13
-3.131806e+14 1.570396e+14 4.233529e+14
4.489872e+14 -1.938267e+13 4.511408e+14
-2.110402e+14 8.930645e+13 -2.834167e+14
-1.479843e+14 8.041548e+12 1.944656e+14
-2.969784e+14 -6.262066e+13 -2.504528e+14
5.405513e+12 6.267575e+11 -5.100157e+12
4.954693e+12 2.252120e+13 1.997918e+13
-9.462299e+11 -7.947708e+12 -5.251187e+12
3.950171e+14 -1.158978e+14 1.960931e+13
2.681578e+12 -2.664440e+12 -3.336916e+12
-5.105993e+13 -3.493578e+13 -1.439754e+13
-6.083256e+13 2.234840e+13 -2.531869e+14
3.559384e+13 -4.217454e+13 2.998629e+13
-2.812723e+12 -1.131054e+13 -3.242034e+13
-6.468684e+11 3.007602e+13 -1.516839e+14
5.628088e+14 3.317686e+13 2.528811e+14
5.465706e+13 2.850084e+14 -5.506614e+14
-9.854531e+12 -9.606416e+12 -3.632191e+12
1.135913e+14 7.344110e+13 -7.987405e+13
-9.338239e+12 -5.785047e+13 -3.251689e+13
6.493030e+12 3.092400e+12 8.799703e+11
1.278107e+14 -2.755346e+14 6.745329e+14
8.053245e+13 -3.570258e+13 1.713206e+13
-5.634991e+12 -1.432059e+12 6.203560e+12
-3.333378e+11 -1.509642e+12 2.026648e+12
-1.659347e+13 6.951227e+12 -1.388709e+13
3.014605e+12 6.197122e+12 1.263928e+12
2.267264e+13 5.403608e+13 -2.044041e+13
-3.376885e+14 2.254920e+14 1.470866e+14
-1.464676e+12 -7.075779e+12 5.663166e+11
1.063295e+12 -1.411340e+12 2.631245e+11
1.143609e+12 3.381614e+12 -3.290382e+12
6.675772e+12 -5.948504e+12 -5.750752e+12
5.364583e+13 8.924226e+13 -2.157209e+13
1.203734e+14 3.728005e+14 -3.130478e+14
3.969200e+12 2.305355e+12 9.317705e+12
4.139510e+14 3.585689e+13 3.251587e+14
2.918702e+12 -9.310598e+12 -8.603484e+12
-6.117705e+11 2.698960e+12 5.607706e+12
1.421103e+13 3.148720e+12 -1.714377e+13
7.132977e+11 3.015741e+12 -1.386363e+12
4.866108e+12 4.186584e+11 2.177049e+13
-1.007403e+14 1.566486e+13 7.412738e+13
1.091969e+14 2.692556e+13 -1.386252e+14
-3.249424e+12 9.284640e+12 4.904309e+13
3.886389e+12 -7.566303e+11 -6.626783e+11
5.948958e+12 1.392809e+12 -1.208222e+12
1.677494e+13 -4.718480e+13 1.159032e+14
6.318845e+12 -8.315917e+12 6.312321e+12
-6.198196e+12 4.544801e+12 3.287614e+12
-1.036874e+12 -8.929942e+12 6.012140e+12
-4.569995e+12 -1.033099e+13 1.915384e+13
3.307250e+12 -4.727925e+10 3.647326e+11
1.393547e+12 -2.960297e+12 1.032317e+12
-7.367680e+13 6.064077e+14 4.231669e+12
3.354367e+14 4.744090e+14 -1.268403e+14
2.009671e+12 8.837420e+12 4.983741e+12
-2.415919e+14 -1.280929e+14 -1.786283e+14
2.726057e+12 9.254859e+11 3.549302e+12
9.930315e+11 -1.061148e+12 1.197196e+12
2.812736e+13 -1.013489e+14 5.966570e+14
-5.678950e+13 1.906419e+14 3.783169e+14
7.894508e+11 -1.856243e+12 -2.241893e+12
1.517046e+12 1.771972e+12 5.852611e+12
-5.660773e+13 -1.242619e+14 -2.514093e+14
6.069087e+12 7.079414e+11 3.294586e+12
8.773717e+13 -2.973452e+13 4.885236e+14
-1.075817e+14 7.850070e+13 9.111336e+12
-4.757434e+14 2.643854e+13 3.954296e+14
3.965449e+14 -2.069606e+14 4.403264e+14
-9.292187e+13 -1.958734e+13 3.971647e+13
2.169728e+14 7.586161e+13 4.204367e+14
-4.232957e+14 3.797966e+14 2.038455e+14
-6.995146e+13 7.280487e+13 -2.073715e+13
1.114805e+13 -1.552409e+12 -1.032857e+13
3.333653e+13 2.700789e+13 3.840065e+13
1.127777e+12 -3.226212e+12 -3.523266e+11
1.079663e+13 6.007162e+12 3.044154e+13
3.036663e+12 -6.854523e+11 -5.375664e+12
1.022644e+13 -1.364181e+13 1.467855e+13
-2.339436e+14 5.006404e+14 -8.866791e+13
2.422713e+12 -1.906530e+12 -2.301285e+11
1.457395e+13 -8.860016e+12 4.213863e+12
3.107127e+14 2.666992e+14 -4.424505e+14
5.593290e+14 2.308428e+14 2.679945e+13
6.773797e+13 4.107093e+13 2.322909e+12
1.803315e+14 1.002701e+14 -4.452695e+13
-2.444967e+12 -7.398823e+11 -1.624690e+12
6.044255e+11 1.054741e+13 -1.156161e+13
-2.983044e+13 -6.053815e+14 -1.766800e+14
-8.038808e+12 1.253541e+13 -2.743824e+13
-4.060276e+14 -4.844554e+14 -1.304656e+13
2.162810e+13 -4.747467e+13 -5.357650e+13
-5.998357e+12 -2.553356e+12 -5.199000e+12
[...]
POINT_DATA 1500
SCALARS H2_density float 1
LOOKUP_TABLE default
5.774493e+11
9.440971e+11
4.186750e+09
6.114422e+12
1.278246e+12
4.029925e+11
5.605173e+12
6.665191e+08
8.071266e+11
6.770147e+08
3.067752e+08
2.099399e+12
2.532822e+10
3.393308e+08
4.310202e+08
1.204950e+13
1.479809e+13
4.041961e+08
3.407548e+12
8.369796e+09
3.741879e+10
2.303330e+09
1.769994e+12
5.608400e+10
9.657277e+08
1.800859e+10
2.261940e+10
7.582020e+12
4.703895e+09
1.086920e+12
3.061724e+10
1.689703e+10
3.026378e+10
2.074646e+10
6.960850e+08
4.143176e+10
2.945633e+12
2.205806e+11
8.530216e+11
7.192360e+12
3.824341e+08
5.181873e+08
1.841088e+10
1.082636e+09
1.639512e+12
3.222898e+13
3.997150e+08
4.158152e+08
7.822682e+10
6.776857e+09
1.224710e+12
1.521457e+09
2.433172e+09
2.483008e+12
3.919901e+10
1.536590e+13
6.394209e+11
1.292623e+09
3.789863e+11
4.049610e+08
3.326706e+08
6.104932e+10
1.283837e+13
3.723540e+12
1.912643e+12
5.605105e+08
4.356044e+10
3.933759e+09
1.130359e+09
3.391028e+10
4.980287e+10
1.967998e+12
3.165776e+12
7.708766e+08
2.684326e+11
3.080151e+10
2.310194e+13
8.680409e+11
9.938879e+11
9.473774e+09
2.305901e+12
8.577000e+12
4.251653e+08
2.518031e+10
1.097182e+09
2.925236e+08
2.445380e+09
3.242546e+10
1.551700e+10
5.098403e+10
5.759432e+08
1.869253e+12
1.456198e+11
5.165308e+08
6.370935e+08
3.695096e+09
8.495514e+09
4.306227e+08
4.811406e+10
1.108801e+11
5.883931e+08
2.034755e+09
1.631801e+09
3.455606e+11
3.093060e+13
1.829636e+10
1.070086e+13
1.556194e+11
7.493309e+09
7.204029e+10
3.293043e+12
2.096442e+12
3.448485e+09
1.362267e+12
1.005044e+13
1.029213e+12
1.450821e+11
1.673432e+12
1.097591e+12
1.836439e+10
8.941245e+10
1.173210e+10
1.634583e+13
5.917443e+11
6.206743e+11
3.111384e+11
3.811550e+10
3.685864e+12
4.606571e+10
4.168403e+11
2.296929e+11
2.321551e+12
2.798988e+09
1.317421e+09
3.591558e+11
5.086206e+10
7.348141e+10
2.015674e+11
8.518800e+11
8.296528e+08
2.520844e+10
6.328856e+08
5.894703e+12
7.914331e+10
2.848983e+11
1.666351e+11
1.749043e+11
1.161755e+12
8.941652e+12
5.627577e+11
5.003389e+08
3.726028e+08
1.137379e+09
2.527362e+09
9.757418e+08
2.716236e+12
1.622993e+11
1.648777e+12
8.895093e+08
5.942469e+12
3.744514e+10
2.212003e+09
3.830062e+10
1.272943e+11
6.318238e+09
3.957219e+08
3.899595e+08
7.457897e+11
6.122758e+09
3.364067e+10
2.878044e+12
2.760860e+08
1.876016e+10
2.090081e+12
2.325347e+13
2.925146e+11
3.077794e+12
3.922571e+10
8.100594e+08
2.876077e+12
4.733757e+13
6.410243e+12
1.336804e+12
1.336185e+10
6.008215e+08
1.400404e+12
5.427607e+08
8.928175e+11
3.863645e+12
2.987246e+11
1.310903e+13
3.035062e+11
9.509049e+09
4.741369e+09
6.038715e+10
9.375227e+12
3.895041e+12
9.477739e+09
1.014505e+12
2.162067e+12
1.291738e+12
3.055467e+11
1.364451e+13
1.283560e+13
4.048699e+08
4.272001e+08
1.412348e+12
1.416239e+09
7.234120e+12
4.261489e+13
4.116138e+08
8.270042e+08
1.661228e+13
3.806281e+12
1.845865e+09
3.135301e+12
6.111049e+08
8.478940e+09
3.940786e+08
3.835032e+08
1.425958e+10
6.580506e+08
4.139648e+08
1.422167e+10
6.474227e+11
4.557209e+10
1.279923e+13
1.399817e+11
3.915318e+12
2.985107e+11
4.823508e+08
1.580855e+13
4.895019e+11
4.157240e+08
4.118459e+08
2.405610e+10
3.390952e+09
1.648548e+13
6.159714e+11
3.790536e+08
1.550231e+11
3.779790e+08
2.701829e+10
2.173004e+12
3.852285e+11
2.092830e+12
6.460344e+11
2.294679e+10
1.653522e+12
3.610962e+12
1.359184e+10
2.159791e+09
5.830489e+08
6.119645e+11
1.634022e+12
3.764824e+09
4.925708e+10
2.474088e+11
7.544421e+08
4.109412e+09
3.830490e+09
1.267826e+09
1.196452e+10
5.750835e+12
1.264843e+10
3.578077e+08
8.258821e+08
9.914783e+08
6.255361e+09
8.493050e+10
4.152596e+12
1.971481e+12
5.931643e+11
1.352615e+11
1.096379e+10
4.984144e+11
7.166188e+08
6.888646e+10
3.608325e+08
2.236509e+11
9.646049e+08
5.386396e+08
4.094505e+11
9.525121e+09
1.247241e+11
7.943925e+12
1.949495e+10
3.510655e+11
2.146223e+12
9.708873e+12
3.828135e+08
2.798060e+11
3.677839e+11
1.102689e+12
6.277027e+10
5.766335e+10
4.124179e+09
6.739634e+11
2.426576e+12
5.855988e+08
7.937693e+11
6.059093e+12
3.996590e+08
3.254478e+11
5.521586e+10
1.324098e+11
2.096937e+10
4.421639e+08
2.136518e+12
5.758385e+12
6.912715e+10
1.706815e+10
1.012316e+09
8.567107e+08
3.520871e+10
1.182730e+11
1.988009e+10
6.842538e+10
6.397731e+12
3.076039e+12
5.823281e+10
1.336439e+11
2.073190e+13
1.075034e+11
1.221672e+12
8.949627e+11
2.066582e+12
4.275008e+08
3.976908e+10
8.517844e+11
1.917987e+09
3.658031e+10
1.994738e+10
5.632084e+09
5.140068e+11
5.214380e+13
1.016108e+13
4.677365e+12
7.284877e+08
5.219647e+09
8.707389e+09
3.982367e+12
7.220038e+09
6.281630e+08
3.429951e+11
2.007983e+11
1.643682e+09
4.211513e+08
2.753446e+10
7.128756e+09
2.103927e+09
3.639543e+08
9.137230e+10
1.186994e+13
3.045423e+12
5.286467e+08
9.653060e+08
5.991648e+09
1.732534e+10
3.102923e+11
2.526237e+10
1.221380e+10
9.993343e+08
6.739851e+13
2.803617e+11
3.475270e+11
1.655102e+12
2.115565e+10
7.292732e+08
4.689789e+09
4.007636e+11
6.073286e+11
3.141964e+10
2.035794e+09
6.986350e+09
4.613434e+08
1.207008e+11
9.825291e+11
5.167922e+10
6.465210e+08
4.924455e+09
7.574382e+11
4.847292e+12
3.753679e+12
3.766609e+13
7.445902e+08
3.921677e+08
3.078560e+09
2.812024e+10
1.929296e+12
5.028379e+08
3.942621e+08
7.363338e+08
1.155827e+10
1.306853e+12
2.898861e+12
4.145651e+08
3.517493e+12
1.320906e+11
2.992258e+10
6.752446e+08
4.024591e+08
1.815962e+10
5.827445e+12
1.469036e+12
2.049477e+09
5.975270e+09
4.088662e+08
2.448535e+09
6.358644e+09
2.925005e+11
6.954395e+08
3.132856e+12
1.313840e+10
1.607250e+13
9.763783e+11
3.255062e+10
3.000645e+08
4.084593e+12
2.889809e+10
3.128347e+10
7.499369e+12
3.662572e+08
4.167210e+09
6.052488e+08
6.352609e+11
5.856964e+12
5.834946e+08
7.892976e+08
1.270423e+13
2.859901e+13
1.774292e+10
7.343208e+09
2.500562e+09
1.668151e+10
8.308647e+08
2.554936e+09
4.150749e+08
3.498206e+11
5.941392e+08
2.133946e+11
4.234044e+08
3.166930e+09
8.234401e+08
8.956755e+11
2.364503e+10
6.592520e+08
6.477868e+08
1.218398e+11
4.050475e+08
3.969727e+08
1.445287e+09
5.391115e+12
1.065759e+09
2.248522e+11
4.734039e+09
1.368895e+13
4.201481e+08
2.445816e+10
1.069914e+10
9.230769e+08
1.329693e+10
3.505535e+10
3.535926e+08
7.133324e+12
3.151722e+12
5.240796e+10
3.274528e+08
3.740627e+08
4.420941e+09
1.951441e+12
9.039335e+11
2.182084e+12
3.596752e+12
3.693841e+11
1.395820e+11
1.232218e+11
2.883309e+12
4.812053e+11
3.964033e+08
1.398036e+09
1.105662e+11
1.114198e+11
4.387957e+09
3.970592e+12
2.184844e+09
5.444279e+10
7.341496e+12
4.755233e+08
3.616306e+12
8.683373e+10
7.759943e+09
3.300560e+12
1.753361e+11
4.658889e+09
1.699335e+12
2.841616e+10
1.073187e+10
1.742504e+09
1.027488e+10
6.243320e+11
2.706308e+09
5.243686e+11
4.536163e+08
1.999487e+09
2.086473e+10
7.793115e+11
1.353012e+09
1.823145e+12
4.439724e+10
7.537428e+12
1.715834e+09
2.041986e+11
8.021556e+09
5.371314e+13
1.217765e+13
2.827843e+13
2.745210e+11
8.548610e+09
2.516077e+12
1.956706e+11
8.572202e+11
2.370283e+13
4.451997e+08
5.731326e+09
8.321664e+11
6.263075e+11
6.836271e+12
9.150870e+08
4.063146e+12
1.348753e+12
4.236975e+12
2.941039e+10
2.140427e+11
2.894937e+08
2.234011e+11
2.420623e+11
3.720067e+08
1.658925e+10
4.150546e+08
3.482597e+10
1.420604e+10
5.657050e+12
8.724528e+11
5.883708e+10
6.206625e+09
4.051351e+08
4.276524e+11
1.924152e+10
1.034837e+11
1.783007e+12
8.887994e+10
2.949824e+11
5.504305e+08
1.552426e+12
1.102623e+10
1.431444e+13
1.039271e+13
4.105041e+09
2.075207e+11
1.571065e+12
7.084625e+11
3.627417e+10
8.110386e+10
3.539269e+12
7.940631e+11
1.011505e+12
1.459457e+10
3.765948e+12
7.065029e+11
5.739765e+09
2.011713e+10
9.340133e+11
1.070715e+13
2.244704e+12
7.122560e+08
9.039550e+12
2.006047e+13
1.987261e+09
1.540162e+12
2.004439e+09
2.110814e+09
3.932089e+13
1.208303e+10
2.969869e+11
7.685028e+12
4.460736e+08
4.673633e+08
1.356529e+09
3.474603e+11
3.622805e+09
3.675117e+10
1.167086e+09
3.937229e+12
2.623686e+11
8.394987e+08
4.406695e+08
5.873060e+08
5.849024e+12
9.471651e+12
4.204465e+08
2.790940e+09
7.663497e+10
6.127536e+09
1.018626e+11
5.883863e+09
1.076960e+11
9.517347e+11
2.950722e+12
1.225026e+13
4.598773e+10
3.467219e+09
1.464993e+10
3.082422e+12
9.284409e+11
1.401108e+10
4.388339e+10
2.221776e+09
4.529211e+10
2.786099e+09
2.870572e+10
4.235009e+10
1.185202e+09
3.002017e+11
2.381355e+10
3.259014e+12
1.347927e+09
7.953513e+09
8.175396e+12
2.388138e+09
3.591511e+13
1.168473e+09
2.779656e+12
3.826216e+08
6.480983e+11
3.240744e+08
1.381021e+12
6.236059e+10
2.904184e+13
2.729405e+10
1.353851e+10
3.439378e+10
3.196376e+11
3.241596e+09
4.631058e+08
1.595392e+13
3.706822e+08
4.082421e+08
2.323048e+09
9.210014e+09
1.029346e+13
1.233622e+11
3.799713e+08
6.341927e+12
8.546552e+12
3.586626e+10
5.192307e+12
1.275315e+13
2.687592e+11
1.438126e+13
9.077723e+10
5.541958e+08
7.233850e+08
2.491854e+12
8.940177e+09
1.242271e+10
5.910499e+10
5.654701e+12
3.797089e+13
4.036482e+10
3.880275e+08
1.532018e+11
3.992547e+09
1.593746e+12
4.041558e+10
4.344695e+08
6.747105e+11
8.924355e+09
1.508476e+11
7.391854e+08
2.468008e+09
3.351603e+10
6.638585e+10
1.349373e+10
8.531386e+09
2.664654e+10
1.041268e+10
1.051922e+09
2.917578e+12
6.213316e+08
7.823134e+10
2.244521e+09
5.513853e+13
9.450089e+09
3.917346e+10
2.058331e+09
2.761061e+12
3.530034e+08
3.386254e+09
4.064719e+08
3.169105e+09
4.239417e+08
6.539190e+11
5.304428e+11
4.184478e+08
7.313965e+09
3.047118e+08
8.323319e+12
1.264565e+13
5.960877e+08
8.485886e+11
1.489247e+10
1.296896e+09
5.050750e+09
1.404716e+11
6.450623e+11
3.451072e+11
2.765919e+11
7.009631e+08
5.735721e+08
5.204608e+12
9.469173e+11
1.304021e+12
1.216831e+09
1.905023e+09
7.435957e+10
3.815256e+08
1.687642e+12
2.503353e+12
1.004678e+09
2.063462e+10
1.239535e+09
1.034376e+13
3.201270e+12
6.864598e+08
9.119750e+11
3.115765e+08
9.882388e+09
1.004797e+09
7.336030e+08
1.109322e+09
4.005258e+08
1.951756e+10
1.138167e+10
6.338138e+12
1.141577e+13
8.449709e+10
4.770010e+10
4.000990e+08
7.761279e+08
7.846786e+12
3.494157e+09
3.521131e+12
4.107085e+11
1.335311e+13
9.759487e+12
8.255526e+12
2.332357e+13
5.847991e+12
4.125078e+12
3.416093e+09
6.076615e+08
6.920024e+12
1.721451e+10
7.188328e+12
1.167532e+11
7.015000e+09
6.931994e+10
6.278734e+09
1.464470e+09
4.708428e+08
5.282521e+12
1.180203e+09
6.407492e+10
1.775422e+10
3.918417e+08
8.065146e+09
5.269915e+09
4.486631e+08
3.481579e+10
3.681163e+11
1.105278e+09
1.512545e+11
9.146233e+11
4.242588e+09
8.404340e+09
2.891198e+11
1.712623e+12
1.883131e+12
1.671820e+12
4.660889e+08
1.461287e+13
6.188329e+10
2.607451e+11
4.421202e+11
2.127863e+12
3.758195e+08
5.380043e+09
2.630916e+12
1.245145e+10
9.130384e+08
5.475426e+08
6.581259e+10
2.439425e+11
1.171577e+10
4.027399e+08
5.098536e+10
5.004692e+11
9.444299e+09
4.186261e+12
1.135960e+11
6.151456e+12
2.607057e+10
1.149095e+11
6.196325e+08
2.073843e+11
3.185552e+08
3.973480e+11
6.126366e+12
8.715138e+12
2.998641e+11
4.330568e+09
2.240850e+13
1.689707e+09
4.892685e+10
1.705025e+11
3.772962e+10
1.613970e+12
3.020835e+09
8.699329e+08
4.362561e+12
4.800736e+10
6.080798e+10
1.401856e+11
1.144639e+11
4.186059e+13
9.034252e+08
3.952767e+13
9.176914e+10
6.129541e+10
1.506544e+12
6.893953e+08
1.212307e+12
4.353426e+11
1.517447e+12
1.510646e+11
1.797852e+09
4.057253e+09
1.655126e+11
3.601409e+11
4.648092e+09
1.199885e+09
1.787831e+11
2.109076e+13
4.149306e+11
3.360275e+11
9.017519e+11
1.451179e+10
1.430420e+10
2.474407e+09
1.360069e+13
8.707153e+11
4.965338e+12
2.546993e+10
3.359188e+08
6.060931e+13
1.633540e+09
1.043885e+13
6.348475e+11
1.579470e+11
1.236842e+11
4.361061e+08
3.474620e+10
7.195506e+08
4.743640e+08
1.369246e+09
2.448546e+10
5.674170e+10
2.746990e+10
2.750687e+08
4.861397e+12
5.869037e+08
3.437139e+08
4.638005e+11
3.054428e+12
5.135210e+09
3.543089e+08
7.011688e+11
4.535788e+08
5.761686e+08
1.065241e+13
2.376096e+13
4.545011e+11
3.942301e+08
1.932471e+09
1.923147e+11
1.748600e+10
9.969969e+11
2.586836e+12
4.374294e+12
1.984897e+09
1.625442e+13
2.213435e+11
2.641101e+12
6.494492e+09
4.239497e+08
3.468015e+11
3.064502e+10
4.858770e+12
1.040565e+10
4.792202e+11
1.863031e+09
1.225760e+11
5.217908e+09
6.487634e+08
3.984941e+11
1.443489e+12
1.487927e+10
3.791677e+08
1.211300e+10
1.046271e+11
6.243110e+08
1.295341e+11
7.968251e+09
7.601533e+10
6.560328e+11
1.880834e+10
7.728131e+08
2.780058e+10
1.177086e+12
5.079053e+08
3.748423e+11
1.660655e+09
1.052957e+10
9.988136e+12
1.276429e+10
3.219537e+11
3.294821e+09
7.305140e+10
6.102329e+11
2.655315e+10
3.855358e+12
1.065304e+10
8.761725e+08
3.909906e+12
3.569480e+12
3.206657e+11
9.197032e+12
2.678736e+13
9.843775e+08
2.759948e+08
6.453694e+13
1.474403e+11
3.855831e+12
8.632739e+10
6.318682e+12
3.367741e+11
5.725995e+12
1.813638e+09
1.129913e+12
3.398431e+11
3.175814e+10
3.682655e+13
4.593977e+12
1.213920e+09
6.316348e+09
1.052797e+13
2.161112e+09
6.937872e+10
2.510839e+11
4.557942e+13
2.620230e+10
1.039705e+12
5.169628e+08
7.285830e+10
4.278747e+10
3.336459e+13
7.388574e+08
6.017210e+08
9.039061e+09
7.051403e+12
3.784234e+12
3.705646e+08
7.034960e+09
6.990674e+10
7.110229e+08
6.650190e+08
6.629703e+09
1.478152e+11
6.915484e+09
1.559821e+12
5.799195e+13
4.166077e+10
5.623577e+08
6.691729e+10
2.890675e+13
1.041671e+10
1.732326e+12
1.322716e+11
1.893166e+10
1.000000e-30
1.000000e-30
1.000000e-30
1.000000e-30
1.000000e-30
1.000000e-30
1.000000e-30
1.000000e-30
1.000000e-30
1.000000e-30
1.000000e-30
1.000000e-30
1.000000e-30
1.000000e-30
1.000000e-30
1.000000e-30
1.000000e-30
1.000000e-30
1.000000e-30
1.000000e-30
1.000000e-30
1.000000e-30
1.000000e-30
1.000000e-30
1.000000e-30
1.000000e-30
1.000000e-30
1.000000e-30
1.000000e-30
1.000000e-30
1.000000e-30
1.000000e-30
1.000000e-30
1.000000e-30
1.000000e-30
1.000000e-30
1.000000e-30
1.000000e-30
1.000000e-30
1.000000e-30
1.000000e-30
1.000000e-30
1.000000e-30
1.000000e-30
1.000000e-30
1.000000e-30
1.000000e-30
1.000000e-30
1.000000e-30
1.000000e-30
1.000000e-30
1.000000e-30
1.000000e-30
1.000000e-30
1.000000e-30
1.000000e-30
1.000000e-30
1.000000e-30
1.000000e-30
1.000000e-30
1.000000e-30
1.000000e-30
1.000000e-30
1.000000e-30
1.000000e-30
1.000000e-30
1.000000e-30
1.000000e-30
1.000000e-30
1.000000e-30
1.000000e-30
1.000000e-30
1.000000e-30
1.000000e-30
1.000000e-30
1.000000e-30
1.000000e-30
1.000000e-30
1.000000e-30
1.000000e-30
1.000000e-30
1.000000e-30
1.000000e-30
1.000000e-30
1.000000e-30
1.000000e-30
1.000000e-30
1.000000e-30
1.000000e-30
1.000000e-30
1.000000e-30
1.000000e-30
1.000000e-30
1.000000e-30
1.000000e-30
1.000000e-30
1.000000e-30
1.000000e-30
1.000000e-30
1.000000e-30
1.000000e-30
1.000000e-30
1.000000e-30
1.000000e-30
1.000000e-30
1.000000e-30
1.000000e-30
1.000000e-30
1.000000e-30
1.000000e-30
1.000000e-30
1.000000e-30
1.000000e-30
1.000000e-30
1.000000e-30
1.000000e-30
1.000000e-30
1.000000e-30
1.000000e-30
1.000000e-30
1.000000e-30
1.000000e-30
1.000000e-30
1.000000e-30
1.000000e-30
1.000000e-30
1.000000e-30
1.000000e-30
1.000000e-30
1.000000e-30
1.000000e-30
1.000000e-30
1.000000e-30
1.000000e-30
1.000000e-30
1.000000e-30
1.000000e-30
1.000000e-30
1.000000e-30
1.000000e-30
1.000000e-30
1.000000e-30
1.000000e-30
1.000000e-30
1.000000e-30
1.000000e-30
1.000000e-30
1.000000e-30
1.000000e-30
1.000000e-30
1.000000e-30
1.000000e-30
1.000000e-30
1.000000e-30
1.000000e-30
1.000000e-30
1.000000e-30
1.000000e-30
1.000000e-30
1.000000e-30
1.000000e-30
1.000000e-30
1.000000e-30
1.000000e-30
1.000000e-30
1.000000e-30
1.000000e-30
1.000000e-30
1.000000e-30
1.000000e-30
1.000000e-30
1.000000e-30
1.000000e-30
1.000000e-30
1.000000e-30
1.000000e-30
1.000000e-30
1.000000e-30
1.000000e-30
1.000000e-30
1.000000e-30
1.000000e-30
1.000000e-30
1.000000e-30
1.000000e-30
1.000000e-30
1.000000e-30
1.000000e-30
1.000000e-30
1.000000e-30
1.000000e-30
1.000000e-30
1.000000e-30
1.000000e-30
1.000000e-30
1.000000e-30
1.000000e-30
1.000000e-30
1.000000e-30
1.000000e-30
1.000000e-30
1.000000e-30
1.000000e-30
1.000000e-30
1.000000e-30
1.000000e-30
1.000000e-30
1.000000e-30
1.000000e-30
1.000000e-30
1.000000e-30
1.000000e-30
1.000000e-30
1.000000e-30
1.000000e-30
1.000000e-30
1.000000e-30
1.000000e-30
1.000000e-30
1.000000e-30
1.000000e-30
1.000000e-30
1.000000e-30
1.000000e-30
1.000000e-30
1.000000e-30
1.000000e-30
1.000000e-30
1.000000e-30
1.000000e-30
1.000000e-30
1.000000e-30
1.000000e-30
1.000000e-30
1.000000e-30
1.000000e-30
1.000000e-30
1.000000e-30
1.000000e-30
1.000000e-30
1.000000e-30
1.000000e-30
1.000000e-30
1.000000e-30
1.000000e-30
1.000000e-30
1.000000e-30
1.000000e-30
1.000000e-30
1.000000e-30
1.000000e-30
1.000000e-30
1.000000e-30
1.000000e-30
1.000000e-30
1.000000e-30
1.000000e-30
1.000000e-30
1.000000e-30
1.000000e-30
1.000000e-30
1.000000e-30
1.000000e-30
1.000000e-30
1.000000e-30
1.000000e-30
1.000000e-30
1.000000e-30
1.000000e-30
1.000000e-30
1.000000e-30
1.000000e-30
1.000000e-30
1.000000e-30
1.000000e-30
1.000000e-30
1.000000e-30
1.000000e-30
1.000000e-30
1.000000e-30
1.000000e-30
1.000000e-30
1.000000e-30
1.000000e-30
1.000000e-30
1.000000e-30
1.000000e-30
1.000000e-30
1.000000e-30
1.000000e-30
1.000000e-30
1.000000e-30
1.000000e-30
1.000000e-30
1.000000e-30
1.000000e-30
1.000000e-30
1.000000e-30
1.000000e-30
1.000000e-30
1.000000e-30
1.000000e-30
1.000000e-30
1.000000e-30
1.000000e-30
1.000000e-30
1.000000e-30
1.000000e-30
1.000000e-30
1.000000e-30
1.000000e-30
1.000000e-30
1.000000e-30
1.000000e-30
1.000000e-30
1.000000e-30
1.000000e-30
1.000000e-30
1.000000e-30
1.000000e-30
1.000000e-30
1.000000e-30
1.000000e-30
1.000000e-30
1.000000e-30
1.000000e-30
1.000000e-30
1.000000e-30
1.000000e-30
1.000000e-30
1.000000e-30
1.000000e-30
1.000000e-30
1.000000e-30
1.000000e-30
1.000000e-30
1.000000e-30
1.000000e-30
1.000000e-30
1.000000e-30
1.000000e-30
1.000000e-30
1.000000e-30
1.000000e-30
1.000000e-30
1.000000e-30
1.000000e-30
1.000000e-30
1.000000e-30
1.000000e-30
1.000000e-30
1.000000e-30
1.000000e-30
1.000000e-30
1.000000e-30
1.000000e-30
1.000000e-30
1.000000e-30
1.000000e-30
1.000000e-30
1.000000e-30
1.000000e-30
1.000000e-30
1.000000e-30
1.000000e-30
1.000000e-30
1.000000e-30
1.000000e-30
1.000000e-30
1.000000e-30
1.000000e-30
1.000000e-30
1.000000e-30
1.000000e-30
1.000000e-30
1.000000e-30
1.000000e-30
1.000000e-30
1.000000e-30
1.000000e-30
1.000000e-30
1.000000e-30
1.000000e-30
1.000000e-30
1.000000e-30
1.000000e-30
1.000000e-30
1.000000e-30
1.000000e-30
1.000000e-30
1.000000e-30
1.000000e-30
1.000000e-30
1.000000e-30
1.000000e-30
1.000000e-30
1.000000e-30
1.000000e-30
1.000000e-30
1.000000e-30
1.000000e-30
1.000000e-30
1.000000e-30
1.000000e-30
1.000000e-30
1.000000e-30
1.000000e-30
1.000000e-30
1.000000e-30
1.000000e-30
1.000000e-30
1.000000e-30
1.000000e-30
1.000000e-30
1.000000e-30
1.000000e-30
1.000000e-30
1.000000e-30
1.000000e-30
1.000000e-30
1.000000e-30
1.000000e-30
1.000000e-30
1.000000e-30
1.000000e-30
1.000000e-30
1.000000e-30
1.000000e-30
1.000000e-30
1.000000e-30
1.000000e-30
1.000000e-30
1.000000e-30
1.000000e-30
1.000000e-30
1.000000e-30
1.000000e-30
1.000000e-30
1.000000e-30
1.000000e-30
1.000000e-30
1.000000e-30
1.000000e-30
1.000000e-30
1.000000e-30
1.000000e-30
1.000000e-30
1.000000e-30
1.000000e-30
1.000000e-30
1.000000e-30
1.000000e-30
1.000000e-30
1.000000e-30
1.000000e-30
1.000000e-30
1.000000e-30
1.000000e-30
1.000000e-30
1.000000e-30
1.000000e-30
1.000000e-30
1.000000e-30
1.000000e-30
1.000000e-30
1.000000e-30
1.000000e-30
1.000000e-30
1.000000e-30
1.000000e-30
1.000000e-30
1.000000e-30
1.000000e-30
1.000000e-30
1.000000e-30
1.000000e-30
1.000000e-30
1.000000e-30
1.000000e-30
1.000000e-30
1.000000e-30
1.000000e-30
1.000000e-30
1.000000e-30
1.000000e-30
1.000000e-30
1.000000e-30
1.000000e-30
1.000000e-30
1.000000e-30
1.000000e-30
1.000000e-30
1.000000e-30
1.000000e-30
1.000000e-30
1.000000e-30
1.000000e-30
1.000000e-30
1.000000e-30
1.000000e-30
SCALARS Mol_density float 1
LOOKUP_TABLE default
5.774493e+07
9.440971e+07
4.186750e+05
6.114422e+08
1.278246e+08
4.029925e+07
5.605173e+08
6.665191e+04
8.071266e+07
6.770147e+04
3.067752e+04
2.099399e+08
2.532822e+06
3.393308e+04
4.310202e+04
1.204950e+09
1.479809e+09
4.041961e+04
3.407548e+08
8.369796e+05
3.741879e+06
2.303330e+05
1.769994e+08
5.608400e+06
9.657277e+04
1.800859e+06
2.261940e+06
7.582020e+08
4.703895e+05